   * xtb version 6.7.1 (edcfbbe) compiled by 'conda@3ef47c1a292c' on 2024-11-25

   ID    Z sym.   atoms
    1    6 C      1-6, 10-15, 19-24, 28-33, 37, 39-44, 46, 59, 61-66, 68, 81,
                  83-88, 90, 103, 105-110, 112, 125, 127-132, 134, 147,
                  149-154, 156
    2    1 H      7-9, 16-18, 25-27, 34-36, 47-58, 69-80, 91-102, 113-124,
                  135-146, 157-168
    3    7 N      38, 45, 60, 67, 82, 89, 104, 111, 126, 133, 148, 155

          program call               : /home/atarzia/miniforge3/envs/template/bin/xtb input_structure_ff.xyz --gfnff --opt normal --parallel 6 --chrg 0
 * total energy  :   -30.4113214 Eh     change       -0.7105427E-14 Eh
 * total energy  :   -30.6372003 Eh     change       -0.2258789E+00 Eh
 * total energy  :   -30.8200582 Eh     change       -0.1828579E+00 Eh
 * total energy  :   -30.9029747 Eh     change       -0.8291658E-01 Eh
 * total energy  :   -30.9546591 Eh     change       -0.5168438E-01 Eh
 * total energy  :   -30.9937894 Eh     change       -0.3913026E-01 Eh
 * total energy  :   -31.0247309 Eh     change       -0.3094155E-01 Eh
 * total energy  :   -31.0509317 Eh     change       -0.2620073E-01 Eh
 * total energy  :   -31.0733754 Eh     change       -0.2244370E-01 Eh
 * total energy  :   -31.0924679 Eh     change       -0.1909254E-01 Eh
 * total energy  :   -31.1739717 Eh     change       -0.2575124E-04 Eh
 * total energy  :   -31.1739802 Eh     change       -0.8463010E-05 Eh
 * total energy  :   -31.1740010 Eh     change       -0.2082774E-04 Eh
 * total energy  :   -31.1740159 Eh     change       -0.1483512E-04 Eh
 * total energy  :   -31.1740295 Eh     change       -0.1360665E-04 Eh
 * total energy  :   -31.1740443 Eh     change       -0.1481178E-04 Eh
 * total energy  :   -31.1740507 Eh     change       -0.6396179E-05 Eh
 * total energy  :   -31.1740641 Eh     change       -0.1345537E-04 Eh
 * total energy  :   -31.1740690 Eh     change       -0.4872369E-05 Eh
   *** GEOMETRY OPTIMIZATION CONVERGED AFTER 53 ITERATIONS ***

 final structure:
================
168
 xtb: 6.7.1 (edcfbbe)
C            0.52124424421428       -1.07276945370093        4.16601250118264
C           -0.81856589660781       -0.69864447714605        4.13450319261885
C           -1.13628452987818        0.65335226739201        4.10355460746949
C           -0.14225570140755        1.62725060375477        4.11109949170706
C            1.18774335137671        1.22674653544553        4.14307469439224
C            1.53316613150991       -0.12106140176578        4.17316416367294
H            0.78430801967183       -2.11347599448031        4.21690731148051
H           -2.17051142505437        0.94530619317561        4.10605521132778
H            1.95678076553634        1.97662546816273        4.17653356726231
C           -3.77179204441329       -0.33197311804451       -0.70130556200486
C           -3.57609814374941       -1.33974476936309        0.23806054950085
C           -2.79736223718100       -2.43625712735054       -0.10942918018669
C           -2.22337014182245       -2.54245799411575       -1.37258842963664
C           -2.43386280378624       -1.52184120680988       -2.29156997585253
C           -3.20931411177112       -0.41173797474964       -1.96926001799598
H           -4.39321438340224        0.51073295660126       -0.45936760222074
H           -2.66727905017245       -3.22879074634429        0.60464668398237
H           -2.01504852497026       -1.61350467699012       -3.27699622866967
C            2.66642316781745       -2.83903679637522       -0.50663269167835
C            3.46868143740707       -2.16753470617083        0.41157438670122
C            4.04699685280337       -0.96031247642752        0.03969360756576
C            3.84137452892659       -0.42294015420413       -1.22712726486539
C            3.03542962758191       -1.11262132948534       -2.12387009545142
C            2.44457430368579       -2.32424471245420       -1.77811040412922
H            2.23600796470619       -3.78870687547408       -0.24636785959742
H            4.68865808891834       -0.45372109788506        0.73720272996285
H            2.89768074804947       -0.71431512432066       -3.11246220476345
C            1.50477673849706        3.93415911185649       -0.64785207303994
C            0.52262277260703        4.29637482143632        0.26927544344153
C           -0.81156746463007        4.20527791753805       -0.10737683701555
C           -1.17292882246871        3.76744110194730       -1.37801922459372
C           -0.17258172423355        3.41175830297471       -2.27391870491784
C            1.17133628392663        3.49370712706912       -1.92261216645387
H            2.54240318094951        4.02588707105945       -0.38366851524583
H           -1.57118063167163        4.51105866272088        0.58858936686734
H           -0.44793555786408        3.09913493636029       -3.26455344752903
C           -1.87133208895269       -1.69236081030009        4.20184176181914
N           -3.05782276188591       -1.41379908386499        4.56096479370722
C           -4.05819889891295       -2.39185084798452        4.66090763118201
C           -4.79477312668078       -2.32463224892992        6.01679424911971
C           -5.88035485060638       -3.41026041704870        6.12126946243541
C           -6.88034515078045       -3.30689073481772        4.95396103032924
C           -6.15611854933698       -3.37236768728795        3.59765535697536
C           -5.07089783282081       -2.27908360389317        3.48308169394953
N           -4.41094028344123       -2.32636854760908        2.24655164405830
C           -4.22394018882627       -1.29119679960214        1.53391577771545
H           -1.62133906803154       -2.71592610056637        3.98468041691609
H           -3.57826666201559       -3.37863528829188        4.57650933655935
H           -4.06975126613250       -2.39919984874300        6.83673195421548
H           -5.24625777836596       -1.33178752743531        6.11496077527622
H           -6.40020749585037       -3.34848428753070        7.08729296564471
H           -5.40635389702193       -4.39932205703294        6.10684481769038
H           -7.64534094529063       -4.09240750078895        5.02468624750394
H           -7.42676219416802       -2.35865215385587        5.02729552496013
H           -5.67533098919457       -4.34877325526876        3.47602157070157
H           -6.85989334521933       -3.28606801969619        2.76052074979125
H           -5.55819744525261       -1.29628218730990        3.57104502760326
H           -4.60234337618628       -0.34553632896637        1.88032224799979
C            2.91841453799970       -0.53430627218945        4.27734428189015
N            3.26485262674001       -1.68385178563809        4.69290605777220
C            4.61076606309933       -2.05603529522568        4.81958625186419
C            4.89963427059798       -2.73402384391480        6.17671966228826
C            6.38631600699398       -3.10942708541134        6.31022374440833
C            6.83922724466395       -4.00836391987957        5.14341080471724
C            6.54663553243058       -3.34523865045025        3.78548905602187
C            5.05207188931601       -2.98104702891331        3.64720548636714
N            4.76579506535976       -2.39642660403394        2.40526980591409
C            3.75865299395181       -2.74047911022128        1.71134570010031
H            3.68320411093885        0.18146002855749        4.03181459316801
H            5.22166296812280       -1.14281873959381        4.75427911216080
H            4.57321558272673       -2.08032876875796        6.99497841742605
H            4.27753616803496       -3.63196577161783        6.25339452460269
H            6.57790938154837       -3.59792597161404        7.27556142079285
H            6.99162334477720       -2.19481297234746        6.32013283315655
H            7.90627676408641       -4.25462430618136        5.23287696941862
H            6.31192748831029       -4.96849404753539        5.19908613684329
H            7.13618759442255       -2.42833576705837        3.68084803243601
H            6.85125747699261       -3.98665378387702        2.94930894668071
H            4.46294598726859       -3.90710325632736        3.72878463976806
H            3.11481277265353       -3.51948782528168        2.08026765011608
C           -0.48214628434330        3.03556939045308        4.16200475101360
N            0.32371856222213        3.92485409230783        4.57916177613083
C           -0.04921853458016        5.27197389720154        4.68977577798682
C            0.42659192186916        5.89429464756211        6.02088681441310
C           -0.02051642557046        7.36168596832749        6.14566265732359
C            0.47122564254165        8.19592239508607        4.94709063903818
C            0.01191932892098        7.57769141169456        3.61441357176014
C            0.47333482101836        6.10914321556592        3.48542226011230
N            0.08704762173578        5.54430964715830        2.26158831634423
C            0.87859027187808        4.83170796293321        1.56878049059235
H           -1.48152813050256        3.32778548609905        3.89068223840278
H           -1.14846156624942        5.32091695824520        4.66147480665427
H            0.06683888529335        5.28964777238964        6.86255986135033
H            1.51910645639667        5.83031980511966        6.06057032457434
H            0.33093297629750        7.79485301752954        7.09228907561047
H           -1.11546709960751        7.40430143453909        6.19327224463177
H            0.12824949590031        9.23643759223661        5.03033174695299
H            1.56669563321957        8.24683815652897        4.96481402800158
H           -1.08068538210469        7.60353940286116        3.54549249418007
H            0.37346260195150        8.15664356009505        2.75564620048473
H            1.57277171601124        6.08922999520875        3.53348788818602
H            1.87725824947132        4.66276052640289        1.93196725879928
C           -1.48583289439692       -3.73135083965538       -1.75348013055035
N           -1.31735481904557       -4.08400033667396       -2.96236811907236
C           -0.67312286015602       -5.28287817000969       -3.29940014394300
C           -1.39352170794990       -6.02391428892665       -4.44734779834204
C           -0.70132387497519       -7.35962861039604       -4.77329824994205
C            0.78774128576848       -7.14736565528395       -5.10895427858789
C            1.51104737609164       -6.39569868000688       -3.97694287938162
C            0.82153370415594       -5.04882403012908       -3.66634732570362
N            1.49424559626978       -4.33254760362759       -2.66622874346760
C            1.67860905130799       -3.07836655701007       -2.75146056520883
H           -1.12269905417914       -4.37501086124250       -0.97139188557261
H           -0.68741316915625       -5.93286557901945       -2.41114864934896
H           -2.45004734497977       -6.16872262302324       -4.19008938398027
H           -1.39341767116872       -5.37614486186063       -5.33033750141987
H           -1.21684461103358       -7.87217608669454       -5.59719795498826
H           -0.78713859838073       -8.03236543141042       -3.91125937951222
H            1.28124761351667       -8.10750852079044       -5.31349054426928
H            0.87222661752064       -6.57146885655157       -6.03860391461286
H            1.51196513986958       -7.00181375755991       -3.06485400994833
H            2.56786269167708       -6.22486901143304       -4.21651195882034
H            0.83530561115263       -4.43903369113609       -4.58269903479249
H            1.30773035259948       -2.55866204181342       -3.61764765463706
C           -3.48711785477211        0.61530234845612       -2.95397633055730
N           -4.47514772170729        1.40889496162372       -2.86270352872362
C           -4.74817812036991        2.37406365981342       -3.84258374058450
C           -6.24623811389754        2.41519910293354       -4.21559156770353
C           -6.52123715532389        3.45755736626344       -5.31430699686568
C           -6.02621743714112        4.85446497995207       -4.89192331076897
C           -4.53638691057662        4.82271520946464       -4.50605043057096
C           -4.26507665767046        3.78499723230556       -3.39482311249769
N           -2.91623620873580        3.76286935932525       -3.01283195531624
C           -2.56178946612635        3.74758562747127       -1.79285447349600
H           -2.85177664111135        0.67542797683552       -3.82025032247953
H           -4.17627547421795        2.11040488720600       -4.74525846613637
H           -6.58226030996036        1.41469771644372       -4.51473843048015
H           -6.81940244975929        2.65950693336934       -3.31499787700236
H           -7.59039425376855        3.48272113264625       -5.56629841641443
H           -6.01051858515749        3.15520113407081       -6.23668900920148
H           -6.20437506193594        5.58830894253077       -5.69003561886393
H           -6.61513635743429        5.20513146454827       -4.03565558909067
H           -3.92797108350705        4.56198909847431       -5.37840316187212
H           -4.18172915249080        5.81016780821904       -4.18576412863516
H           -4.86132984762751        4.06288737738719       -2.51238205603727
H           -3.32115331255111        3.76902983212945       -1.03090816447689
C            4.50911009867394        0.79631861671297       -1.63786087367847
N            4.68650649511865        1.10575548849343       -2.85726842737420
C            5.37367681375484        2.26596250337314       -3.24222212398834
C            6.43819037109226        1.97288867082195       -4.32241112408965
C            7.19673465708196        3.24984290596188       -4.72534530914242
C            6.22391093993228        4.34485194470280       -5.20294665119007
C            5.15765232170887        4.64271346929518       -4.13393083687133
C            4.38669529110799        3.36515762508751       -3.73494479464513
N            3.40151580114751        3.62766147128854       -2.77187991406041
C            2.21236034770587        3.19529388218900       -2.88627363950636
H            4.91460552228305        1.43677893240809       -0.87441992239012
H            5.88421387928696        2.66831440788666       -2.35413982748260
H            7.12259857510710        1.19283114274350       -3.96666358223829
H            5.93463021778166        1.54428147534297       -5.19528928060724
H            7.94569002226397        3.02935009690355       -5.49844131849247
H            7.76573834373937        3.62027606191823       -3.86391467096918
H            6.76870454621577        5.25977524337578       -5.47379856509204
H            5.73021355272574        4.01456702970685       -6.12503746156743
H            5.63095956761749        5.05413706775660       -3.23619911518292
H            4.45188835306868        5.41164948270962       -4.47175056634012
H            3.88733637257074        2.96893629269516       -4.63211607449281
H            1.94875220041394        2.62468404636969       -3.75945953661831

         :: total energy             -31.174068993736 Eh    ::
         :: gradient norm              0.000898159986 Eh/a0 ::
         :: repulsion energy           2.047636316828 Eh    ::

molecular dipole:
                 x           y           z       tot (Debye)
 q only:       -0.001       0.001       0.013       0.032
           -------------------------------------------------
          |                Geometry Summary                 |
           -------------------------------------------------

      molecular mass/u    :     1117.5204463

           -------------------------------------------------
          | TOTAL ENERGY              -31.174068993736 Eh   |
          | GRADIENT NORM               0.000898159986 Eh/α |
           -------------------------------------------------

 * finished run on 2024/12/18 at 20:42:56.889
