   * xtb version 6.7.1 (edcfbbe) compiled by 'conda@3ef47c1a292c' on 2024-11-25

   ID    Z sym.   atoms
    1   26 Fe     1, 41, 81, 121
    2    6 C      2-4, 6-8, 15-17, 19-21, 28-30, 32-34, 42-44, 46-48, 55-57,
                  59-61, 68-70, 72-74, 82-84, 86-88, 95-97, 99-101, 108-110,
                  112-114, 122-124, 126-128, 135-137, 139-141, 148-150,
                  152-154, 161-172, 181-192, 201-212, 221-232, 241-252,
                  261-272
    3    7 N      5, 9, 18, 22, 31, 35, 45, 49, 58, 62, 71, 75, 85, 89, 98,
                  102, 111, 115, 125, 129, 138, 142, 151, 155
    4    1 H      10-14, 23-27, 36-40, 50-54, 63-67, 76-80, 90-94, 103-107,
                  116-120, 130-134, 143-147, 156-160, 173-180, 193-200,
                  213-220, 233-240, 253-260, 273-280

          program call               : /home/atarzia/miniforge3/envs/template/bin/xtb input_structure_ff.xyz --gfnff --opt normal --parallel 6 --chrg 8
 * total energy  :   -48.9573711 Eh     change        0.0000000E+00 Eh
 * total energy  :   -49.0344499 Eh     change       -0.7707878E-01 Eh
 * total energy  :   -49.0880391 Eh     change       -0.5358919E-01 Eh
 * total energy  :   -49.1146014 Eh     change       -0.2656232E-01 Eh
 * total energy  :   -49.1379087 Eh     change       -0.2330733E-01 Eh
 * total energy  :   -49.1570591 Eh     change       -0.1915034E-01 Eh
 * total energy  :   -49.1725830 Eh     change       -0.1552399E-01 Eh
 * total energy  :   -49.1857956 Eh     change       -0.1321259E-01 Eh
 * total energy  :   -49.1969456 Eh     change       -0.1114999E-01 Eh
 * total energy  :   -49.2058362 Eh     change       -0.8890586E-02 Eh
 * total energy  :   -49.2806804 Eh     change       -0.2292989E-04 Eh
 * total energy  :   -49.2806885 Eh     change       -0.8102174E-05 Eh
 * total energy  :   -49.2807034 Eh     change       -0.1485631E-04 Eh
 * total energy  :   -49.2807107 Eh     change       -0.7301192E-05 Eh
 * total energy  :   -49.2807164 Eh     change       -0.5752474E-05 Eh
 * total energy  :   -49.2807230 Eh     change       -0.6610318E-05 Eh
 * total energy  :   -49.2807291 Eh     change       -0.6007154E-05 Eh
 * total energy  :   -49.2807361 Eh     change       -0.7054335E-05 Eh
 * total energy  :   -49.2807391 Eh     change       -0.2991474E-05 Eh
   *** GEOMETRY OPTIMIZATION CONVERGED AFTER 118 ITERATIONS ***

 final structure:
================
280
 xtb: 6.7.1 (edcfbbe)
Fe          -0.63927035873980        1.48803019299920        7.47017152354133
C           -3.26607388688734        4.78347635058768        9.44273071177914
C           -1.92571326202527        4.80574693732345        9.80584166377136
C           -1.06153213144978        3.90636922393840        9.23849863658900
N           -1.50211461090376        3.01411812921129        8.33644712844479
C           -2.81304343360150        2.95586826091180        7.95567869445992
C           -3.71357666151747        3.86828542086764        8.52758832838965
C           -3.20329173608924        1.95678604663272        7.03316772863004
N           -2.31435319720615        1.13783381712667        6.48056600466042
H           -3.95504345666887        5.48694749112148        9.88871800741792
H           -1.57344771149143        5.52291630690643       10.53261706344502
H           -0.02344260344365        3.88231708905013        9.51679507430834
H           -4.75392837295934        3.83948746583486        8.24962880961732
H           -4.23580205101404        1.88423505182593        6.73625883348676
C           -2.22180901695642       -1.59230833253297       10.57702335280431
C           -2.57286148157810       -0.27315342586664       10.83109056543721
C           -2.15982791721649        0.70655462165851        9.96741013915643
N           -1.42157575011433        0.39904407433656        8.88832186352767
C           -1.04699475630485       -0.88102923451605        8.60741400893328
C           -1.46663193704227       -1.90082464555098        9.47700993266523
C           -0.20332061667604       -1.11616288501888        7.49686869980132
N            0.28253556066772       -0.14086373775144        6.73512709810399
H           -2.53638276395443       -2.37164462522558       11.25651440702978
H           -3.16000819787453       -0.02620293434615       11.70329019374882
H           -2.40792650194210        1.73832873615158       10.13794982526570
H           -1.17334509887323       -2.91959680220385        9.28705438160049
H            0.07530348540629       -2.13291553123929        7.28460725405233
C            3.07905757838295        2.66010587416763        9.96675794770686
C            2.31448453896917        1.63091641350261       10.50089535147862
C            1.22025446209901        1.18119867698837        9.80965482275210
N            0.89224799958009        1.72602475967227        8.62693027891535
C            1.61804492862156        2.73390571052039        8.06346021214157
C            2.73977461397713        3.21227801170331        8.76021782856908
C            1.18748232056049        3.27405963154705        6.82855454618756
N            0.11903054115509        2.82651527429825        6.17480115611952
H            3.93843059755723        3.02756485546623       10.50959148681033
H            2.57780743219959        1.19870101490585       11.45501245405118
H            0.59489768816944        0.39957044300138       10.20228316699466
H            3.32371900586252        4.01726062561198        8.34633475697739
H            1.72967564844029        4.11197428461862        6.42543953984936
Fe          -5.61885798069050       -5.49162246896547       -2.18900083110778
C           -5.03453702467454      -10.10669728539760       -2.03775443001122
C           -5.55752147554603       -9.61972458780233       -3.22844668850205
C           -5.71891380504752       -8.26842805373482       -3.38778830493750
N           -5.37039686949292       -7.41874879134480       -2.40750699559182
C           -4.85963042817134       -7.85819298189877       -1.21879980354214
C           -4.68858050144149       -9.23948917078330       -1.03612966203189
C           -4.56831674500825       -6.90371991205901       -0.21665887239863
N           -4.71300490685832       -5.60126378681123       -0.43627122155265
H           -4.90736315597079      -11.17156124244561       -1.90232472758534
H           -5.83784265678976      -10.30339435260590       -4.01621909226496
H           -6.14586012081188       -7.86385192484437       -4.28730538623737
H           -4.29330910594728       -9.61153310374237       -0.10565501158203
H           -4.19509135202034       -7.23218810681055        0.73869843103440
C           -9.64539118066949       -5.85830291812406        0.11252980178983
C           -9.07742366061520       -7.06577077997526       -0.27262078796190
C           -7.87796811362468       -7.06046328287953       -0.93452687834561
N           -7.25694189197359       -5.90212808875741       -1.20985772697437
C           -7.78162670585077       -4.69423564633673       -0.85205925105168
C           -9.00904335442531       -4.67912817287575       -0.17092222737280
C           -7.09564254377851       -3.51962075479246       -1.23973315255185
N           -5.99297939611332       -3.55978977244669       -1.98010649479209
H          -10.59623873513736       -5.85248731745863        0.62619321381442
H           -9.58281568479065       -7.99570172677580       -0.05766926523642
H           -7.41581350005039       -7.97564529359631       -1.25724585095470
H           -9.45472249621339       -3.73890595733301        0.10722498427625
H           -7.52161987560132       -2.55871248293252       -1.00484268070703
C           -7.61614510680911       -5.82202572017394       -6.35156188007896
C           -8.49926864907122       -5.77319717247829       -5.28047560352607
C           -8.00704817994623       -5.60403945912034       -4.01288130991623
N           -6.68562984711220       -5.48059050535659       -3.80806202680131
C           -5.78464187127199       -5.51586228623395       -4.83195804624231
C           -6.26929139123272       -5.69564973319810       -6.13746256432442
C           -4.40986176223277       -5.38671072697060       -4.52400672287973
N           -3.96910283511044       -5.19559518807763       -3.28328983962252
H           -7.99556770551901       -5.96508255789156       -7.35343140249428
H           -9.56110680278942       -5.87726618539714       -5.44820105816761
H           -8.65999013170947       -5.58401515528750       -3.15873900343713
H           -5.57954471395656       -5.74151189448665       -6.96348207193886
H           -3.69449754129782       -5.45667289493719       -5.32564764668633
Fe           7.18174705734916       -2.86539363452637       -2.01867810737597
C           10.78496363459854       -0.09975595111684       -2.95691619572215
C           10.60793092463697       -1.15435758526184       -3.84384067630010
C            9.53745730159241       -1.99432015900731       -3.68215615688186
N            8.66659038193651       -1.79835594759500       -2.67919436470897
C            8.80283503422995       -0.77362673450081       -1.78552464860544
C            9.89476865600819        0.09571959868156       -1.93438723856302
C            7.84655558997959       -0.65824229441609       -0.74825592289401
N            6.83263268663102       -1.51276037633466       -0.64746407773429
H           11.63164655116069        0.56197738451686       -3.07310743193161
H           11.31308687681424       -1.31142816091603       -4.64675901247330
H            9.38034361207839       -2.83211012695296       -4.33761519979376
H           10.03418831062899        0.90464203713784       -1.23695142769340
H            7.93141311877778        0.13122418887167       -0.02028501987320
C            9.69404266449958       -5.41295251319294        0.94064263814635
C           10.40360188549136       -4.43030504571789        0.26194725489530
C            9.73895436787214       -3.59935072519024       -0.60117744025032
N            8.41624790719621       -3.73243096314961       -0.78967234496428
C            7.68098450135486       -4.68427804959563       -0.14274269614898
C            8.34448834438819       -5.54418613464944        0.74656035253863
C            6.29740114826475       -4.77139234954521       -0.42651862710366
N            5.72477861893990       -3.99129012233131       -1.33752888239202
H           10.21258149007940       -6.07883007193337        1.61587443960249
H           11.46875220154147       -4.33056288671614        0.41045686915255
H           10.25819352750399       -2.83711511477270       -1.15358669970248
H            7.79248880740132       -6.31473673566017        1.25810640749719
H            5.69314696358128       -5.51177259216972        0.07049330451704
C            8.03497180011847       -5.66804152797385       -5.61367418674699
C            8.63827148506744       -6.04182597437292       -4.41932578682945
C            8.40483234512361       -5.30178994267393       -3.28996317391040
N            7.59997693287901       -4.22822708880602       -3.33634055715766
C            6.98480109657658       -3.82800705387368       -4.48822125724469
C            7.21326000726105       -4.57287865454570       -5.65583818718235
C            6.16622114858301       -2.67445630032443       -4.44352863080315
N            6.01192483546270       -1.97716914572046       -3.32208931964388
H            8.22163573066262       -6.24128746878038       -6.51082500439587
H            9.28913184259058       -6.90321992681874       -4.38714243739291
H            8.86696867714250       -5.55201804121961       -2.35191115372337
H            6.75260621213460       -4.27203844218149       -6.58184843835111
H            5.66977875037648       -2.33223047956965       -5.33613619753291
Fe          -1.49715926764197        6.60320615537720       -4.50569003392146
C           -5.74123742202183        7.83321851690285       -5.97140569365735
C           -4.71518106563509        8.07090743798507       -6.87660778027497
C           -3.43386399240872        7.71824033718055       -6.54376643932676
N           -3.16929131593015        7.14993743857082       -5.35613816645830
C           -4.14707886101645        6.90351296162895       -4.43692458817557
C           -5.46720742006646        7.25491381341487       -4.76058512265444
C           -3.77402369722962        6.36750710039045       -3.18279402001994
N           -2.50524787184818        6.14217163801805       -2.85963895016851
H           -6.75403841885939        8.11563228517417       -6.22178964316432
H           -4.92838569255997        8.53483442946039       -7.82834611731279
H           -2.61479952530761        7.89938206771238       -7.21565171720114
H           -6.25599102190550        7.08595536538557       -4.04677029078279
H           -4.53031977145206        6.21718612127574       -2.43093332103838
C           -0.43389770107413       10.87561206352627       -3.06964623883572
C           -1.74216014517271       10.71338203683145       -3.50733068403628
C           -2.17204377243994        9.46948601543185       -3.88905644187258
N           -1.34030081044894        8.41652668582281       -3.83469047514866
C           -0.05058153260288        8.53059819190101       -3.40441769616447
C            0.41078213053897        9.79882875664819       -3.01651522795753
C            0.75962824243147        7.37092690081513       -3.38722213128507
N            0.29731658723479        6.16929387364880       -3.72284282348235
H           -0.08440161990389       11.85501570430287       -2.77473145323921
H           -2.40791863224771       11.56270529443077       -3.55229398561593
H           -3.17122962874602        9.31248696112808       -4.25411195685810
H            1.42826757712970        9.92050807088421       -2.68458351564815
H            1.79143873742770        7.46923366744848       -3.09586773749395
C            0.25456130447083        7.51542646611307       -8.72137763069784
C            0.41231730949769        8.53065106212575       -7.78716034075794
C           -0.02424665429827        8.33471193649324       -6.50324166766033
N           -0.59435823983551        7.17225641069992       -6.14525979301782
C           -0.77563964760202        6.15244199298146       -7.03635741686574
C           -0.33521035128496        6.33467560584314       -8.35674147591162
C           -1.43113623812454        4.97968076717244       -6.59502317553059
N           -1.81177958072059        4.83118166428137       -5.33099667713698
H            0.59276536342758        7.66292468647094       -9.73740341209674
H            0.86996384198837        9.46553537035146       -8.07551184375549
H            0.06003533262605        9.11158656071931       -5.76538804446072
H           -0.47114528970201        5.54779567370073       -9.07976755852925
H           -1.59254782645356        4.17083047017364       -7.28715512336124
C           -4.21455983212744       -1.50668977667526        4.69658455161558
C           -3.85290686336994       -0.58632262560555        5.65023553777854
C           -2.64775577948864        0.11187400477428        5.55830908670778
C           -1.81570073699942       -0.17300338684717        4.47819046084582
C           -2.17791227932405       -1.08642803468470        3.52107334682546
C           -3.39341512690554       -1.77406104328119        3.59601892260168
C           -3.78874491844947       -2.73903018739913        2.54782369758209
C           -4.53459932005070       -3.88369703582342        2.84847298828318
C           -4.86549990432082       -4.79467807087954        1.87526356327736
C           -4.47517588687862       -4.60551349076658        0.54877285468010
C           -3.75561885648528       -3.45281621757616        0.24059141474766
C           -3.41710146227324       -2.54613849863098        1.21312398841701
H           -5.15977708981482       -2.01414018666199        4.78127513208138
H           -4.50072850897624       -0.39786348497275        6.48855857217545
H           -0.88221910541487        0.35135567909137        4.40380243740006
H           -1.50990066179508       -1.29379293496143        2.70409816426299
H           -4.82611890078389       -4.06731247120809        3.86800981990233
H           -5.43306048194975       -5.67331365461011        2.12847597622492
H           -3.45306292292649       -3.29931889064503       -0.77936284138507
H           -2.86558387406505       -1.66200442896128        0.94707421219775
C            2.82933709598778       -1.80424062047565        4.58501973773756
C            1.94798703383976       -1.57465277646051        5.61420848961254
C            1.25823121671147       -0.36362769478435        5.72738597365120
C            1.54288462711736        0.61111547468120        4.77636369232902
C            2.41153602643317        0.38541054510065        3.74028764335089
C            3.07440745980813       -0.83759439440008        3.60565911054766
C            4.00947380000759       -1.08223119997094        2.48668454219310
C            3.79777474284595       -0.50048409689096        1.23191625941505
C            4.68677365192401       -0.68175202504839        0.20319526995519
C            5.83728816342244       -1.45094285286902        0.37483037145151
C            6.04472179024231       -2.05134009279082        1.61694768437139
C            5.15245474583723       -1.87457368804834        2.64568017677525
H            3.33422465909737       -2.75241711310081        4.52135902539669
H            1.80989274974888       -2.33583285750893        6.36050610697946
H            1.07671764593729        1.56637921748157        4.89039140459207
H            2.61541001622800        1.17132543322370        3.03481829101495
H            2.91761529931871        0.09746602280862        1.07492168849043
H            4.51883128737610       -0.21960132466525       -0.75237091614906
H            6.93658881768579       -2.63578886056022        1.75969969945840
H            5.35677988185180       -2.31346909908416        3.60675021199397
C           -1.94816433970001        3.68773491218968        3.20654515183289
C           -1.57360925450442        3.20589907922041        4.43545109958538
C           -0.27312857885456        3.34229691576023        4.91070011650145
C            0.64357557341663        3.98490113122626        4.07504606287275
C            0.27713836629218        4.45697150105159        2.83921891293969
C           -1.02990467918237        4.32207872821546        2.36255273763801
C           -1.40968764512679        4.80272437077305        1.01859089046256
C           -0.67667760117332        5.79473242561017        0.35591556732002
C           -1.01802468967678        6.21384801814465       -0.90605793695470
C           -2.11412038837853        5.67592037617211       -1.57523328492188
C           -2.86443166782689        4.70624399225435       -0.90909248592672
C           -2.51643800382006        4.27492691079864        0.34623053004011
H           -2.97321882849071        3.59405268152198        2.89564902881123
H           -2.28188747385722        2.69170799187725        5.05181947204644
H            1.66383478540115        4.09468639988872        4.39572684660269
H            1.01807314964998        4.92648227477259        2.21732477196576
H            0.14869037765796        6.26531123557833        0.85979102481701
H           -0.46608473181631        6.99858922099554       -1.38690714843596
H           -3.72418381599293        4.28841551703366       -1.40241862909132
H           -3.10239040092735        3.50680918039847        0.81772965183352
C           -0.70994675581495       -5.09428637246262       -1.49790144439247
C           -2.04284217879734       -5.28543181738793       -1.76139744328091
C           -2.60116906846261       -4.95159564830072       -2.99245311251478
C           -1.74615007899405       -4.40426771286171       -3.95231519771437
C           -0.40978636737598       -4.21831328497164       -3.69739421639163
C            0.14856670498053       -4.55656546447722       -2.46202780793703
C            1.58956394564613       -4.35921907916343       -2.19114303527732
C            2.55494894870303       -4.57931032922042       -3.18041919765562
C            3.89322136797677       -4.42736344382892       -2.91448933683271
C            4.33598572776016       -4.03782072283050       -1.65103581749574
C            3.37727401341417       -3.80740681653975       -0.66451324202107
C            2.03968673254712       -3.96518076248943       -0.92704380433911
H           -0.30570059885578       -5.39029866273960       -0.54586156461279
H           -2.68771695328497       -5.69933445292030       -1.01318664938508
H           -2.14624009820001       -4.11546028532933       -4.90755969269836
H            0.22362466028587       -3.79562167543344       -4.45745126519780
H            2.23969114106878       -4.92057570495712       -4.15113466658312
H            4.62928269222493       -4.64450273797875       -3.66710129720320
H            3.70971980424193       -3.50348542519341        0.31207709879088
H            1.31826147834692       -3.77976321856628       -0.15110076645857
C           -4.59045276639975       -0.12763850597430       -2.07598866266688
C           -5.15030667210330       -1.29077595845004       -1.61129604280321
C           -5.34146257485458       -2.38733698622985       -2.45307349419905
C           -4.96747207741474       -2.25133374216911       -3.78874552879462
C           -4.42264977764128       -1.08262313014329       -4.26057069504518
C           -4.21294232047584        0.01187503132239       -3.41448998766613
C           -3.62223270993310        1.27595992712849       -3.90647964495025
C           -2.72712869107998        2.00590434377878       -3.11836876581224
C           -2.16585530908596        3.17148163128293       -3.57428442782478
C           -2.47370587303527        3.67784878873025       -4.83483975953500
C           -3.38031828775266        2.96266509536561       -5.61930773088478
C           -3.93764273923611        1.79087569895181       -5.16811682452846
H           -4.47063617448998        0.70985081894877       -1.41152681971607
H           -5.45712046525076       -1.36906623439620       -0.58334487758174
H           -5.15451450726726       -3.07324885243356       -4.45358396404273
H           -4.14697043737911       -1.00179688193485       -5.29743947955094
H           -2.45962888900529        1.62835489594461       -2.14740080771274
H           -1.45379137601895        3.70679600334687       -2.97326593233845
H           -3.65024380397353        3.34958879928058       -6.58650298563970
H           -4.64865280983734        1.26689678933593       -5.78339642528352
C            3.01103031800597        0.19584288650419       -3.46080010783293
C            3.80352701240565       -0.92317331621000       -3.42203126348588
C            5.18036492465431       -0.82363527535561       -3.22244763162380
C            5.72468480114314        0.44787802523692       -3.04530649040605
C            4.93167391589865        1.56841795012933       -3.07842640644194
C            3.55248090632095        1.47485148437860       -3.29854638417172
C            2.69899106298579        2.67992355539386       -3.39146903194625
C            2.92859199600302        3.80105030477906       -2.58964765818603
C            2.13786434082704        4.92038884190554       -2.68269727341851
C            1.07876249614598        4.99074805269130       -3.59166890799679
C            0.85220339713998        3.87141603479185       -4.38765913627194
C            1.63324524244298        2.74779356925507       -4.29400898897583
H            1.95180016304212        0.09400515657310       -3.61775246576647
H            3.37340283879975       -1.90048580672966       -3.54666599485835
H            6.78897918822909        0.53269788583999       -2.91980691076781
H            5.38046846730741        2.54182250335380       -2.98285234591609
H            3.73781656284144        3.77787083026092       -1.88099286723671
H            2.33199061599811        5.75808693235540       -2.03736766266729
H            0.04108856258545        3.90789839122897       -5.08531580815260
H            1.44742045542152        1.91260631520031       -4.94615282093789

         :: total energy             -49.280739101717 Eh    ::
         :: gradient norm              0.000659581388 Eh/a0 ::
         :: repulsion energy           3.947044526681 Eh    ::

molecular dipole:
                 x           y           z       tot (Debye)
 q only:       -2.576      -1.329      -4.428      13.452
           -------------------------------------------------
          |                Geometry Summary                 |
           -------------------------------------------------

      molecular mass/u    :     2397.9450254

           -------------------------------------------------
          | TOTAL ENERGY              -49.280739101717 Eh   |
          | GRADIENT NORM               0.000659581388 Eh/α |
           -------------------------------------------------

 * finished run on 2024/12/18 at 20:50:53.307
